<VTKFile type="UnstructuredGrid" version="0.1" byte_order="LittleEndian">
<UnstructuredGrid>
<Piece NumberOfPoints="18937" NumberOfCells="37440">
<PointData Scalars="abs_term_u">
<DataArray type="Float64" Name="real_part_term_u" format="ascii">
6.48604e-05
-0.000107269
-0.000287223
-0.000405619
-0.000489438
2.61354e-05
-0.000146767
0.000271049
-5.46281e-05
0.000110456
0.000154591
-0.000206124
0.000404713
7.70993e-05
-0.000355079
0.000122093
0.000339837
0.000201446
0.000123567
0.000733109
0.000523101
6.59599e-05
-0.000968882
3.70472e-05
-0.000757205
4.31213e-06
-0.000456498
-4.5426e-05
-0.000184997
-0.000128095
-3.51063e-06
0.0004775
0.000328165
0.000814009
0.000278905
0.000554228
0.00065641
0.000217718
0.000831701
0.000343414
0.000164991
-0.00062692
-0.000250705
-0.000921691
-0.000722328
-0.000414077
-0.0010358
-0.000392253
-0.000632735
-0.00103144
-0.00011758
-0.000944289
-0.00132217
-0.00145045
-0.00139327
-0.00121902
-0.00234277
-0.00180053
-0.00242599
-0.0026484
-0.00187479
-0.00305758
-0.00201718
-0.00169015
-0.00348543
-0.00155095
-0.000998096
-0.0027207
-0.000161416
-0.00361781
-0.000730914
-0.00119908
0.00208814
-0.00154346
0.00133065
-0.00204242
0.000576591
-0.000778485
-0.00130863
-0.00125925
0.000315815
-0.00182787
2.27218e-05
-0.00041515
-0.002525
0.00118388
-0.000944476
-0.000656
0.000535213
0.00018078
-0.000118072
-0.000358157
-0.000534274
-0.00137196
-0.000896592
-0.00113445
-0.00119374
-0.000966912
-0.00154531
-0.000844704
-0.00189542
-0.000746954
-0.00219341
-0.000308436
-0.000609933
-0.0003306
-1.55861e-05
-0.000687644
7.18577e-05
-0.000323249
-0.00082107
0.000364429
-0.000564834
-0.0016193
-0.00200722
-0.001421
-0.00140339
-0.0018692
-0.00122461
-0.0017657
-0.00166835
-0.0010561
-0.00210956
0.000401597
0.000868599
0.00113335
0.00121457
0.0011414
0.00287842
0.00425173
0.00181447
0.00267446
0.00281306
0.00190273
0.00388432
0.00147511
0.0017867
0.00551741
0.000947961
0.000826418
0.000546443
0.000122745
-0.000417445
-0.00103956
0.00151695
0.00227746
0.00328136
0.00458708
0.00625257
0.00147825
0.00285158
0.000965625
0.000730991
0.00201242
0.000408098
0.00208144
0.0013455
-0.000282336
0.00387764
-0.00245192
-0.00408665
-0.00270581
-0.00199114
-0.00217735
-0.00229502
-0.00236656
-0.0024101
-0.00353843
-0.002802
-0.0030811
-0.00292857
-0.00271489
-0.00304781
-0.00472977
-0.00261496
-0.00325474
-0.00317739
-0.00387812
-0.00273527
-0.00371148
-0.00330493
-0.00275747
-0.00435978
-0.00266538
-0.00274749
-0.00343827
-0.00354361
-0.00374027
-0.00304816
-0.00387636
-0.00328533
-0.00316902
-0.00426737
-0.00290298
-0.00326298
-0.00309737
-0.00304311
-0.00293818
-0.00282362
-0.00273536
-0.00266935
-0.00373034
-0.00385786
-0.00323831
-0.00340486
-0.00357438
-0.00359825
-0.00394901
-0.00436792
-0.00486901
-0.00331007
-0.00318877
-0.00305263
-0.00344413
-0.00306539
-0.00328795
-0.00331001
-0.00295448
-0.00355374
-0.00316839
-0.00284444
-0.00414319
-0.00374216
-0.00440622
-0.00428635
-0.00395297
-0.00462721
-0.00387048
-0.00414393
-0.00478797
-0.00352482
-0.00257739
-0.00311143
-0.00335064
-0.00362473
-0.00244594
-0.00228777
-0.00211555
-0.00195763
-0.00182481
-0.00272377
-0.00290268
-0.00258605
-0.00257465
-0.00253803
-0.00247159
-0.002371
-0.00219341
-0.00200515
-0.00232488
-0.00224797
-0.00211444
-0.00238578
-0.00207222
-0.00223541
-0.00242403
-0.00190694
-0.00291838
-0.00273504
-0.00287104
-0.00313906
-0.00269417
-0.00312843
-0.0029275
-0.00261674
-0.00338227
-0.00274385
0.00208814
0.00133065
0.000576591
-0.000161416
-0.000730914
-0.000778485
-0.00130863
-0.00125925
0.000315815
-0.00182787
2.27218e-05
-0.00041515
-0.002525
0.00118388
-0.000944476
-0.000269875
-0.00116692
-0.00215836
-0.00314191
-0.00399421
-0.00458431
-0.00328642
-0.0021573
-0.00138171
-0.000854387
-0.000501413
0.00769705
0.00617363
0.00426778
0.00240264
0.000849876
-0.00401279
-0.00544746
-0.00418047
-0.00238637
-0.00554892
-0.00294759
-0.00337549
-0.00521285
-0.0016756
-0.00474717
0.00339803
0.000842527
0.00286306
0.0064328
0.00091333
0.00522831
0.00401826
0.000905143
0.00766684
0.000643554
-0.00479105
-0.00587823
-0.00678272
-0.00734719
-0.00737589
-0.00664454
0.00219096
-0.00580156
0.00107263
-0.00681963
-0.000322878
-0.0077227
-0.00188118
-0.00832184
-0.00343994
-0.00834687
-0.010861
-0.010433
-0.00867461
-0.0126482
-0.00885347
-0.00974054
-0.0132859
-0.00730201
-0.0102615
-0.0118654
-0.00161639
3.20538e-05
-0.00419273
-0.00102746
-0.00186182
-0.00422243
0.00064491
-0.00388783
-0.00379909
0.00163468
0.00827189
0.0079785
0.0220822
0.00717907
0.0079785
0.00717907
0.00606349
0.00495488
0.00400006
0.016996
0.00606349
0.0134651
0.00495488
0.0110003
0.00400006
0.00931322
0.00968442
0.00822494
0.00819548
0.0130215
0.00704227
0.0117007
0.010663
0.00568037
0.0163911
0.00903231
0.00968442
0.00822494
0.00819548
0.0130215
0.00704227
0.0117007
0.010663
0.00568037
0.0163911
0.00903231
0.00219096
0.00107263
-0.000322878
-0.00188118
-0.00343994
-0.00161639
3.20538e-05
-0.00419273
-0.00102746
-0.00186182
-0.00422243
0.00064491
-0.00388783
-0.00379909
0.00163468
0.00301217
0.00286454
0.00245115
0.00160396
4.68347e-05
-0.00269454
0.00428004
0.00637796
0.00964854
0.0145036
0.0212413
0.00766016
0.0113728
0.00427296
0.00815929
0.00702793
0.00375795
0.0135946
0.00438832
0.00251104
0.0181505
0.00301217
0.00286454
0.00245115
0.00160396
4.68347e-05
-0.00269454
0.00428004
0.00637796
0.00964854
0.0145036
0.0212413
0.00766016
0.0113728
0.00427296
0.00815929
0.00702793
0.00375795
0.0135946
0.00438832
0.00251104
0.0181505
-0.00993932
-0.0139342
-0.0160895
-0.015816
-0.0128724
-0.0235652
-0.0224282
-0.0222263
-0.0201694
-0.0232763
-0.0206413
-0.0211893
-0.0206846
-0.016082
-0.0186406
0.00795998
0.00473233
0.000241123
0.00964185
0.00960299
0.0139892
0.0126005
0.0124193
0.0123842
0.0131063
0.0106032
0.0142444
0.0120816
0.00656598
0.0106184
-0.00170693
0.008319
-0.00412502
-0.00200115
0.000518311
0.00508155
-0.0019629
0.0027513
-0.00234187
0.00106725
-0.00288896
-0.000159218
-0.00365007
-0.00105578
-0.00465569
-0.00513147
-0.00464421
-0.00402998
-0.00331398
-0.0025267
0.0033021
0.00604675
0.0027328
0.00662877
0.00923785
0.0103813
0.0100317
-0.00451546
-0.00419352
-0.00384544
-0.00541413
-0.00348184
-0.00465249
-0.00534677
-0.00293654
-0.00532849
-0.00509464
-0.000484837
0.00117306
-0.00156928
-0.00102773
-0.000232405
-0.00211209
0.00105281
-0.00124005
-0.00294372
0.00316347
0.00268326
0.00661575
0.000891549
0.000157968
0.0049244
-0.000673837
0.00346353
0.00190887
-0.00257897
0.00695125
-0.000181455
-0.000119386
-6.40019e-05
-1.91254e-05
1.45508e-05
1.29904e-05
5.79802e-05
3.40202e-05
-5.2902e-05
8.05587e-05
-3.68409e-05
-5.02152e-06
0.000104595
-0.000108431
3.62495e-05
-0.0042986
-0.00464398
-0.00495779
-0.00521693
-0.00539632
-0.00562176
-0.00546164
-0.00513705
-0.0062526
-0.00509242
-0.00567194
-0.00605868
-0.00468485
-0.00631151
-0.00576326
-0.00618658
-0.00635496
-0.006337
-0.00615172
-0.00584666
-0.00865303
-0.00753074
-0.00810326
-0.0104
-0.00726182
-0.00970182
-0.00899012
-0.00684541
-0.0117763
-0.0075941
-0.00547073
-0.00677192
-0.00701195
-0.00708523
-0.00596594
-0.00641026
-0.00634819
-0.00744495
-0.00883205
-0.0106182
-0.012989
-0.00871045
-0.00965544
-0.00743351
-0.00912188
-0.0081284
-0.00782252
-0.0103331
-0.00692689
-0.00803679
-0.0116427
-0.00394151
-0.00389618
-0.00378359
-0.00359668
-0.00333118
-0.00298664
-0.00249804
-0.00277981
-0.00307286
-0.00337027
-0.0036633
-0.00426401
-0.00463683
-0.00507236
-0.00558663
-0.00620093
-0.003032
-0.00317484
-0.00323013
-0.0026783
-0.0034038
-0.00290081
-0.00277567
-0.00356549
-0.00258586
-0.00287833
-0.00436526
-0.00406591
-0.0049591
-0.00405607
-0.00471893
-0.00455184
-0.00381998
-0.00543708
-0.00420114
-0.00348774
-0.00168724
-0.00110938
-0.00152185
-0.00125897
-0.0021131
-0.00200602
-0.00190942
-0.00182274
-0.00174737
-0.00135569
-0.00138976
-0.00119404
-0.00150234
-0.0010518
-0.00159896
-0.0009344
-0.00161716
-0.00155848
-0.00147559
-0.00180911
-0.00143295
-0.00167901
-0.00173262
-0.00128509
-0.00189267
-0.0016628
-0.00116428
-0.00101375
-0.00121296
-0.00126463
-0.00105037
-0.00132807
-0.00111095
-0.0010822
-0.00142975
-0.000973401
-0.000708391
-0.000604414
-0.000500111
-0.000403178
-0.000322468
-0.000466391
-0.000372963
-0.000489243
-0.000536829
-0.000391882
-0.000568158
-0.000438174
-0.000405307
-0.000641669
-0.000349022
-0.00246408
-0.00240769
-0.00234979
-0.00229123
-0.00251787
-0.00182932
-0.00214228
-0.00184428
-0.00146671
-0.00212296
-0.00153186
-0.00179931
-0.00209669
-0.00116093
-0.00215236
-0.00223261
-0.00125531
-0.00174434
-0.00157722
-0.00151753
-0.00184745
-0.00130695
-0.00198417
-0.000886479
-0.00206523
-0.00111461
-0.00130342
-0.00107215
-0.0012863
-0.00154241
-0.00103028
-0.00156274
-0.00130956
-0.000969992
-0.00179558
-0.00109931
-0.000819935
-0.000412914
-0.000507424
-0.000596174
-0.000678127
-0.000752532
-0.000849098
-0.000876549
-0.000901429
-0.000921526
-0.000935223
-0.000694559
-0.000689385
-0.000588735
-0.000802551
-0.000596529
-0.00069195
-0.000790851
-0.000496144
-0.000807067
-0.000773727
-0.00025033
-0.000316763
-0.000312822
-0.000303003
-0.000288406
-0.000270446
-0.000170615
7.72865e-05
-9.28651e-05
-6.36928e-06
-1.66876e-05
-8.26584e-05
5.78825e-05
-0.000149424
0.000130509
-0.000205256
-0.000149524
-0.000152018
-6.18961e-05
-0.000228716
-7.54119e-05
-0.000140695
-0.000225516
1.06793e-05
-0.000225733
-0.000217337
2.59826e-05
-3.77758e-05
0.000107532
9.65587e-06
4.21933e-05
9.64278e-05
-5.98789e-05
0.000119016
8.61628e-05
-0.000120446
4.71503e-05
0.000280619
0.000174049
0.000100626
0.000148971
0.000153442
0.000124939
0.000203418
0.000101494
0.000246549
7.71066e-05
0.000191544
0.000234536
0.00016945
0.000171677
0.000212734
0.00014645
0.000217521
0.000193069
0.000123527
0.000258312
-0.000998096
-0.00119908
-0.00154346
-0.00204242
-0.0027207
-0.00361781
-0.000944289
-0.000968882
-0.00132217
-0.000757205
-0.00145045
-0.000456498
-0.00139327
-0.000184997
-0.00121902
-3.51063e-06
-0.00234277
-0.00180053
-0.00242599
-0.0026484
-0.00187479
-0.00305758
-0.00201718
-0.00169015
-0.00348543
-0.00155095
-0.00062692
-0.000250705
-0.000921691
-0.000722328
-0.000414077
-0.0010358
-0.000392253
-0.000632735
-0.00103144
-0.00011758
0.000122093
6.59599e-05
3.70472e-05
4.31213e-06
-4.5426e-05
-0.000128095
0.000733109
6.48604e-05
0.000523101
-0.000107269
0.000339837
-0.000287223
0.000201446
-0.000405619
0.000123567
-0.000489438
0.0004775
0.000328165
0.000814009
0.000278905
0.000554228
0.00065641
0.000217718
0.000831701
0.000343414
0.000164991
2.61354e-05
-0.000146767
0.000271049
-5.46281e-05
0.000110456
0.000154591
-0.000206124
0.000404713
7.70993e-05
-0.000355079
-0.00479105
-0.00116692
-0.00215836
-0.00314191
-0.00399421
-0.00458431
-0.00587823
-0.00678272
-0.00734719
-0.00737589
-0.00664454
-0.00580156
-0.00681963
-0.0077227
-0.00832184
-0.00834687
-0.00993932
-0.0139342
-0.0160895
-0.015816
-0.0128724
-0.00401279
-0.00544746
-0.00418047
-0.00238637
-0.00554892
-0.00294759
-0.00337549
-0.00521285
-0.0016756
-0.00474717
-0.010861
-0.010433
-0.00867461
-0.0126482
-0.00885347
-0.00974054
-0.0132859
-0.00730201
-0.0102615
-0.0118654
-0.0235652
-0.0224282
-0.0222263
-0.0201694
-0.0232763
-0.0206413
-0.0211893
-0.0206846
-0.016082
-0.0186406
-0.00492165
-0.00987974
-0.0145058
-0.0171698
-0.0171178
-0.0147739
-0.00401812
-0.000408353
0.00488265
0.0102729
0.0141622
0.000704754
0.00809677
0.0133024
0.0132648
0.00736406
-0.00241239
-0.0101335
-0.000587531
0.00491269
-0.0102863
0.00670213
-0.00230476
-0.00831187
0.0119937
-0.00773199
0.0128395
0.0116603
0.0133348
0.00846976
0.0101473
0.0113536
0.0118057
0.00869093
0.00430079
0.0130729
-0.00743487
0.029521
-0.00743487
0.0257468
0.0013808
0.023329
0.0140054
-0.00451159
0.0279137
0.00127237
-0.0171682
-0.0199877
-0.0198235
-0.0170754
-0.0125867
-0.000914043
-7.99261e-05
0.0350888
0.00521901
0.00825374
0.0335311
0.00580767
-0.000914043
-7.99261e-05
0.00521901
0.00825374
0.00580767
0.0164432
0.0013808
0.023329
-0.00451159
0.0279137
0.0164432
-0.0171682
-0.0199877
-0.0198235
-0.0170754
-0.0125867
-0.00876207
-0.00769923
-0.0153729
-0.00391806
-0.0118966
-0.0129813
-0.00142013
-0.0153347
-0.00898893
-0.0037298
0.0235752
0.0155721
0.017282
0.0307981
0.0131532
0.0266566
0.0226994
0.00631186
0.0329272
0.0111205
-0.00876207
-0.00769923
-0.0153729
-0.00391806
-0.0118966
-0.0129813
-0.00142013
-0.0153347
-0.00898893
-0.0037298
0.0235752
0.0155721
0.017282
0.0307981
0.0131532
0.0266566
0.0226994
0.00631186
0.0329272
0.0111205
-0.0125429
-0.00989873
-0.0107161
-0.0117309
-0.0124924
-0.0117884
-0.0144721
-0.0069478
-0.0119983
-0.0117285
-0.00841274
-0.0131041
-0.0058634
-0.0102906
-0.0137355
-0.0115318
0.00231376
0.000483789
-0.00532635
0.00207744
0.0150094
-0.00459498
0.00964739
-0.00175471
0.017138
-0.00791868
-0.00989873
-0.0107161
-0.0117309
-0.0124924
-0.0125429
-0.0117884
-0.0144721
-0.0069478
-0.0119983
-0.0117285
-0.00841274
-0.0131041
-0.0058634
-0.0102906
-0.0137355
0.0107946
0.0140706
0.0137463
0.00291143
0.0173163
0.00678618
0.00622972
0.0182574
-0.00102273
0.00875797
0.0116235
-0.0010372
0.000997318
0.00395508
0.00762703
-0.012102
-0.0215852
-0.00616145
-0.00552931
-0.0168797
-0.0013477
-0.0154724
-0.00944922
0.00449884
-0.0223946
-0.00462257
-0.00300485
-0.00197487
-0.0018681
-0.00225324
-0.00444874
-0.00319777
-0.00842527
-0.00200522
-0.00430289
-0.00731079
-0.00253863
-0.00650119
-0.00305513
-0.00377039
-0.00214002
-0.00597775
-0.0117531
-0.0140504
-0.0127278
-0.00836931
-0.0243751
-0.0271395
-0.025222
-0.0193486
-0.0110053
-0.025478
-0.0276718
-0.0192402
-0.0242964
-0.02255
-0.0200351
-0.0284791
-0.0145389
-0.0170095
-0.0283577
-0.00589117
-0.0145805
-0.0126323
-0.0107337
-0.00901819
-0.00745486
-0.00555044
0.00841516
-0.0032521
0.00235999
-5.29057e-06
-0.00273539
0.00276644
-0.00589922
0.00378265
-0.00683127
-0.00901772
-0.00710048
-0.00637747
-0.0120337
-0.00396145
-0.0116399
-0.00992443
0.000637855
-0.0144685
-0.00823618
0.00665025
0.000450125
0.0134111
0.00547187
0.0056896
0.0144329
-0.00049413
0.00968083
0.0126496
-0.0042483
0.000235466
0.000254103
0.00027381
0.000292879
0.00021788
0.000305073
0.000318349
0.000326076
0.000271338
0.000336624
0.000291975
0.00028745
0.00035813
0.000255875
0.000303679
0.000200479
0.000386334
0.000347702
0.000309457
0.000271975
0.000235571
0.00024075
0.000192245
0.000184421
0.00017731
0.000171359
0.000167157
0.000382543
0.000350039
0.000315557
0.000279119
0.00026479
0.000219597
0.000267894
0.000306447
0.000223942
0.00030737
0.000263135
0.000229396
0.00034737
0.000216903
0.000347864
0.000382941
0.000347463
0.000312978
0.000383612
0.0003109
0.000348752
0.000384695
0.000275262
0.000382599
-0.00694415
-0.0162815
-0.0168866
-0.00801029
-0.00927409
-0.0107516
-0.012443
-0.0143163
-0.0078595
-0.0146226
-0.0125746
-0.00968547
-0.0157371
-0.00265525
-0.0172611
0.00558426
-0.0173216
-0.00600454
-0.0055619
-0.00512701
-0.00727203
-0.00433736
-0.0078535
-0.00364763
-0.00781014
-0.00305951
-0.00744919
-0.0114327
-0.0122933
-0.00940298
-0.0123191
-0.0103525
-0.00976559
-0.0140113
-0.00875418
-0.009471
-0.0146143
-0.00482514
-0.00510382
-0.00369663
-0.00579312
-0.00414712
-0.00413702
-0.0061999
-0.00334668
-0.00472386
-0.00621247
-0.0188203
-0.017238
-0.0153449
-0.0183492
-0.0128349
-0.0185998
-0.019421
-0.00597825
-0.015161
-0.0187425
-0.00256757
-2.661e-05
0.000981383
-0.000738081
-0.0010377
-0.00137674
-0.0017501
-0.00215026
-0.000894963
-0.00215817
-0.00160508
-0.00269399
-0.00280057
-0.00286043
-0.00282613
-0.00260132
-0.000669113
-0.00126403
-0.00029594
-0.00039164
-0.000879378
2.65231e-05
-0.00110788
-0.000545482
0.000442978
-0.00169338
-0.0007016
-0.00129214
0.000866831
-0.00150403
-0.000251599
0.000375954
-0.00191516
0.00101804
-0.000677112
-0.00209996
-0.000941446
-0.000313803
-0.000480591
3.51977e-05
-0.00024725
0.000103656
-0.000205716
2.36062e-05
0.000205834
0.000342285
0.000436784
-0.000265195
8.75083e-06
0.000356829
0.00079926
0.00136249
0.000273421
-0.000215213
9.50149e-05
-0.000124029
-4.73662e-05
-0.000912474
-0.00086967
-0.000809844
-0.000728876
-0.000621433
-4.05732e-05
-0.000159791
0.000255367
-0.000802688
-4.43972e-06
-0.000679636
-0.000265717
-0.000570837
-0.00051456
-0.000474678
-0.000741609
-0.000389518
-0.000308181
1.32727e-05
-0.000504477
-0.000423885
-0.000161541
-0.000605754
-0.000141541
-0.000373638
-0.00068329
0.0001514
0.000578344
0.000751617
0.000702959
0.00027261
0.000953599
0.000330772
0.000453303
0.00116819
3.28034e-05
0.000577675
-0.000306348
-0.000176189
-0.00050022
-0.000226906
-0.000401136
-0.000403636
-0.00010481
-0.000612102
-0.000320035
5.30521e-05
4.05675e-05
6.0086e-05
-5.03933e-05
0.000121759
-5.32247e-05
3.32804e-05
0.000150821
-0.000143954
0.000107403
0.000199524
0.000216579
0.000263573
0.000307231
0.000348285
0.000387361
0.000355222
0.000309427
0.000392042
0.000365694
0.000350008
0.000399432
0.00031605
0.000388498
0.000412765
0.000265844
0.000165451
0.000218234
0.000273236
0.000329089
0.000383887
0.000435033
0.000172743
0.00019118
0.000225579
0.000282219
0.000368964
0.000343561
0.000317686
0.000299174
0.000422596
0.000265683
0.00036443
0.000414944
0.000234683
0.000427902
0.000399336
0.000318659
0.000331067
0.00034691
0.000366002
0.000388118
0.000400221
0.00038135
0.000435776
0.000384094
0.000414389
0.000421757
0.000365196
0.000447949
0.000405867
0.000349283
0.000309648
0.000369375
0.000385177
0.000334819
0.000353407
0.000399965
0.000336541
0.000365136
0.0003954
0.000426656
0.000458336
0.000405433
0.000421787
0.000415665
0.000378463
0.000433279
0.000386755
0.000395341
0.000445316
0.000359348
0.000410609
-0.000656
0.000535213
0.00018078
-0.000118072
-0.000358157
-0.000534274
-0.00137196
-0.000896592
-0.00113445
-0.00119374
-0.000966912
-0.00154531
-0.000844704
-0.00189542
-0.000746954
-0.00219341
-0.000308436
-0.000609933
-0.0003306
-1.55861e-05
-0.000687644
7.18577e-05
-0.000323249
-0.00082107
0.000364429
-0.000564834
-0.0016193
-0.00200722
-0.001421
-0.00140339
-0.0018692
-0.00122461
-0.0017657
-0.00166835
-0.0010561
-0.00210956
-0.000269875
-0.00328642
-0.0021573
-0.00138171
-0.000854387
-0.000501413
0.00769705
0.000401597
0.00617363
0.000868599
0.00426778
0.00113335
0.00240264
0.00121457
0.000849876
0.0011414
0.00339803
0.000842527
0.00286306
0.0064328
0.00091333
0.00522831
0.00401826
0.000905143
0.00766684
0.000643554
0.00287842
0.00425173
0.00181447
0.00267446
0.00281306
0.00190273
0.00388432
0.00147511
0.0017867
0.00551741
0.000947961
0.000826418
0.000546443
0.000122745
-0.000417445
-0.00103956
0.00151695
0.00227746
0.00328136
0.00458708
0.00625257
0.00147825
0.00285158
0.000965625
0.000730991
0.00201242
0.000408098
0.00208144
0.0013455
-0.000282336
0.00387764
-0.0115318
0.00964739
-0.00175471
0.00231376
0.000483789
-0.00532635
0.00207744
-0.00987974
-0.0145058
-0.0171698
-0.0171178
-0.0147739
0.017138
-0.00791868
0.0150094
-0.00459498
-0.00241239
-0.0101335
-0.000587531
0.00491269
-0.0102863
0.00670213
-0.00230476
-0.00831187
0.0119937
-0.00773199
0.0107946
0.0140706
0.0137463
0.00291143
0.0173163
0.00678618
0.00622972
0.0182574
-0.00102273
0.00875797
-0.00492165
0.00795998
0.0133024
0.00473233
0.0132648
0.000241123
0.00736406
-0.00401812
-0.000408353
0.00488265
0.0102729
0.0141622
0.00964185
0.000704754
0.00960299
0.00809677
0.0128395
0.0116603
0.0133348
0.00846976
0.0101473
0.0113536
0.0118057
0.00869093
0.00430079
0.0130729
0.0139892
0.0126005
0.0124193
0.0123842
0.0131063
0.0106032
0.0142444
0.0120816
0.00656598
0.0106184
0.0104003
0.0164124
0.0200969
0.0209792
0.0191945
0.0235668
0.0237301
0.0231309
0.0199693
0.0236839
0.0210332
0.0219338
0.0219364
0.0159611
0.0216745
0.0154302
0.0217212
0.020232
0.0178636
0.0193464
0.0215844
0.0104003
0.0164124
0.0200969
0.0209792
0.0191945
0.0106711
0.00201817
-0.00774247
-0.015518
-0.0189165
0.00665761
-0.00466172
0.0148034
0.00819922
0.00431869
0.016001
-0.00142642
0.0127588
0.0155824
-0.0112222
0.0235668
0.0237301
0.0231309
0.0199693
0.0236839
0.0210332
0.0219338
0.0219364
0.0159611
0.0216745
-0.00959928
-0.0116452
-0.0189922
-0.0155488
-0.0172367
-0.0162814
-0.012769
-0.0140299
-0.00737469
-0.00507455
-0.0116452
-0.0155488
-0.0162814
-0.0140299
-0.00507455
-0.0166144
-0.0143776
-0.00952006
-0.0133124
-0.0178997
-0.00871946
-0.017151
-0.0143054
-0.0070608
-0.0181755
-0.00910226
-0.0143776
-0.00952006
-0.0133124
-0.0178997
-0.00871946
-0.017151
-0.0143054
-0.0070608
-0.0181755
-0.00910226
0.00305049
-0.00401524
-0.00437556
-0.00356218
-0.00175527
0.000629726
0.00888349
0.0137584
0.0170378
0.0183345
0.0175655
0.00681472
0.00380742
0.0133551
0.00286838
0.00954272
0.0102984
0.000410318
0.0146278
0.0058627
-0.00109969
0.00305049
-0.00401524
-0.00437556
-0.00356218
-0.00175527
0.000629726
0.00888349
0.0137584
0.0170378
0.0183345
0.0175655
0.00681472
0.00380742
0.0133551
0.00286838
0.00954272
0.0102984
0.000410318
0.0146278
0.0058627
-0.00109969
-0.0107857
-0.00668286
-0.00404618
-0.0023691
-0.0013098
0.0130054
0.00809581
0.00106985
-0.00660543
-0.0131765
-0.00450033
-0.00665675
-0.00362526
-0.00353745
-0.00512267
-0.00300961
-0.00554753
-0.00397142
-0.00220744
-0.00857521
-0.000679656
-0.00407985
0.000348984
0.00238284
-0.00201877
0.00266307
-0.00275824
-0.00082678
0.0066758
-0.0075395
-0.0170939
0.0024142
0.0194534
0.00629169
0.0221895
0.00948735
0.0216478
0.0111032
0.0177835
0.0106471
0.0110658
0.00819592
-0.0235347
-0.0131052
-0.00977053
-0.00717684
-0.00528568
-0.00398652
-0.0257902
-0.0230358
-0.0159908
-0.00663237
-0.0174777
-0.0144181
-0.00897231
-0.00285272
0.0020882
-0.0058817
-0.00301459
-0.00585745
-0.00923094
-0.00394469
-0.00848177
-0.0050189
-0.00419066
-0.0123055
-0.00111474
-0.00910456
0.0018109
-0.0128776
-0.0142074
-0.000474938
-0.0192108
-0.00550569
-0.00355886
-0.0208773
0.00273034
0.0268371
0.0265553
0.0280066
0.0192961
0.0311449
0.0235975
0.0199265
0.028767
0.0160334
0.0176267
0.00251424
-0.00930654
-0.0162919
-0.0160139
-0.00982259
-0.00923696
0.00167838
-0.00923316
-0.0148224
-0.000159051
-0.0126976
-0.00922012
-0.00268378
-0.0126567
0.00259659
0.0139816
0.0103295
0.0317522
0.0138251
0.0300974
0.0156199
0.0226222
0.025933
0.00546412
0.0156208
0.0128774
0.0263785
0.0218099
0.0201697
0.0304261
0.0199282
0.024448
0.0272387
0.0139072
0.0263854
0.0191163
0.000413052
0.000459692
0.000519553
0.000471588
0.000483282
0.000481696
0.000447784
0.000422306
0.000420025
0.000417993
0.000416161
0.000414515
0.000430411
0.000594751
0.000445968
0.000556662
0.00049296
0.00048817
0.000532306
0.000457554
0.00052608
0.000497528
0.000454267
0.000564842
0.000460805
0.000450994
0.000510379
0.000477782
0.000521097
0.000532636
0.000490028
0.000543737
0.000497769
0.000500444
0.000568341
0.000463692
0.000454625
0.000440092
0.000431892
0.000427607
0.000425634
0.000499131
0.000529336
0.000467983
0.000499773
0.000498801
0.000464998
0.000533755
0.000474144
0.000463609
0.000565405
0.000424937
0.00057131
0.000605781
0.000604677
0.000572481
0.000538004
0.000501723
0.000463984
0.000462868
0.000499999
0.000536145
0.000576354
0.000575172
0.000538835
0.000613612
0.000538271
0.000575308
0.000614585
0.000501237
0.000610094
0.000612256
0.000509077
0.000529949
0.000552856
0.000577875
0.000604988
0.000587463
0.000583657
0.00056243
0.000616685
0.000558536
0.000589437
0.000614922
0.000535617
0.000616564
0.000611079
-0.00554469
-0.00904552
-0.0099183
-0.00828023
-0.00513599
-0.00509012
-0.00604995
-0.00864699
0.000117323
-0.00829802
-0.00617652
-0.000430587
-0.00845022
-0.00151769
-0.00257703
-0.00196829
0.0189528
0.018476
0.0155028
0.010567
0.00444863
0.00449176
0.00653251
0.00620291
0.00390427
0.000714787
0.00247511
0.00277262
0.00281733
0.00234634
0.00094961
0.00814233
0.00555493
0.00664543
0.0125067
0.00500579
0.00981627
0.00958614
0.00425209
0.0139065
0.00556155
0.019998
0.0126393
0.0209881
0.0214264
0.0145518
0.0245692
0.0161154
0.0137518
0.0237773
0.00881404
0.00175058
0.00141427
0.00111071
0.000855585
0.000651669
0.00193082
0.00145004
0.00270836
0.00173132
0.00199904
0.0025537
0.00132592
0.00267335
0.00222492
0.00100701
0.00208137
0.0103585
0.0135388
0.00348967
0.00370603
0.0036477
0.00333008
0.00279048
0.00347623
0.00528591
0.00757381
0.00615836
0.00797751
0.00465363
0.00588969
0.0059383
0.00476866
0.00773006
0.00420312
0.00451719
0.0102047
0.000495126
0.000479056
0.000378957
0.000485996
0.000480853
0.000500177
0.000526683
0.000523206
0.000533729
0.000555183
0.000514745
0.00059492
0.000702618
0.00244991
0.000826518
0.00193256
0.000839937
0.00147797
0.000728702
0.00108984
0.000501254
0.000764415
0.000486027
0.000499505
0.000514779
0.000525077
0.000521813
0.000649376
0.000624281
0.000580261
0.00070387
0.000578325
0.000597275
0.000734912
0.000539982
0.000577356
0.000669425
0.000509731
0.000530119
0.00048745
0.000513897
0.000480504
0.000511158
0.000534391
0.000425329
0.000507795
0.000568591
0.00120517
0.00102167
0.000953617
0.00154387
0.000931918
0.00134447
0.00123881
0.000676073
0.00184851
0.000955269
0.000410386
0.00049009
0.000425285
0.000501344
0.000434872
0.000480227
0.000441428
0.00045833
0.000448206
0.000435797
0.000456468
0.000514741
0.000539634
0.000564668
0.000589746
0.000614767
0.000505317
0.000517568
0.000526997
0.00053377
0.000538061
0.000424157
0.000436127
0.000448504
0.000461514
0.000475256
0.000521324
0.000486127
0.000471836
0.000510323
0.00047506
0.000494847
0.000501262
0.000461287
0.000516962
0.000489627
0.000448162
0.000560232
0.000574583
0.000538967
0.000565981
0.000551511
0.000546649
0.000581245
0.000528386
0.000551614
0.000597487
0.000473792
0.000479192
0.000487149
0.000454287
0.000492294
0.000466955
0.00046098
0.000506316
0.000446161
0.000467066
0.000464128
0.000476364
0.000482502
0.000464214
0.000457979
0.000449704
0.000444931
0.000444921
0.000488512
0.000494147
0.000470249
0.000471931
0.000483121
0.0004958
0.000509534
0.000524279
0.000468095
0.000463506
0.000478594
0.000462373
0.0004739
0.000473019
0.000456773
0.000484119
0.000468023
0.00045341
0.000501413
0.000488425
0.000509295
0.000506014
0.000495622
0.000515328
0.000492718
0.000502223
0.000520332
0.000480628
-0.00245192
-0.00408665
-0.00270581
-0.00199114
-0.00217735
-0.00229502
-0.00236656
-0.0024101
-0.00353843
-0.002802
-0.0030811
-0.00292857
-0.00271489
-0.00304781
-0.00472977
-0.00261496
-0.00325474
-0.00317739
-0.00387812
-0.00273527
-0.00371148
-0.00330493
-0.00275747
-0.00435978
-0.00266538
-0.00274749
-0.00343827
-0.00354361
-0.00374027
-0.00304816
-0.00387636
-0.00328533
-0.00316902
-0.00426737
-0.00290298
-0.00326298
-0.00170693
0.008319
-0.00412502
-0.00200115
0.000518311
0.00508155
-0.0019629
0.0027513
-0.00234187
0.00106725
-0.00288896
-0.000159218
-0.00365007
-0.00105578
-0.00465569
-0.00513147
-0.00464421
-0.00402998
-0.00331398
-0.0025267
0.0033021
0.00604675
0.0027328
0.00662877
0.00923785
0.0103813
0.0100317
-0.00451546
-0.00419352
-0.00384544
-0.00541413
-0.00348184
-0.00465249
-0.00534677
-0.00293654
-0.00532849
-0.00509464
-0.000484837
0.00117306
-0.00156928
-0.00102773
-0.000232405
-0.00211209
0.00105281
-0.00124005
-0.00294372
0.00316347
0.00268326
0.00661575
0.000891549
0.000157968
0.0049244
-0.000673837
0.00346353
0.00190887
-0.00257897
0.00695125
-0.00309737
-0.00304311
-0.00293818
-0.00282362
-0.00273536
-0.00266935
-0.00373034
-0.00385786
-0.00323831
-0.00340486
-0.00357438
-0.00359825
-0.00394901
-0.00436792
-0.00486901
-0.00331007
-0.00318877
-0.00305263
-0.00344413
-0.00306539
-0.00328795
-0.00331001
-0.00295448
-0.00355374
-0.00316839
-0.00284444
-0.00414319
-0.00374216
-0.00440622
-0.00428635
-0.00395297
-0.00462721
-0.00387048
-0.00414393
-0.00478797
-0.00352482
-0.00257739
-0.00311143
-0.00335064
-0.00362473
-0.00244594
-0.00228777
-0.00211555
-0.00195763
-0.00182481
-0.00272377
-0.00290268
-0.00258605
-0.00257465
-0.00253803
-0.00247159
-0.002371
-0.00219341
-0.00200515
-0.00232488
-0.00224797
-0.00211444
-0.00238578
-0.00207222
-0.00223541
-0.00242403
-0.00190694
-0.00291838
-0.00273504
-0.00287104
-0.00313906
-0.00269417
-0.00312843
-0.0029275
-0.00261674
-0.00338227
-0.00274385
0.0154302
0.0116235
-0.0189165
0.0193464
0.0215844
0.0217212
0.020232
0.0178636
-0.0010372
0.0106711
0.000997318
0.00201817
0.00395508
-0.00774247
0.00762703
-0.015518
0.00665761
-0.00466172
0.0148034
0.00819922
0.00431869
0.016001
-0.00142642
0.0127588
0.0155824
-0.0112222
-0.012102
-0.0215852
-0.00616145
-0.00552931
-0.0168797
-0.0013477
-0.0154724
-0.00944922
0.00449884
-0.0223946
-0.00462257
-0.00300485
-0.00197487
-0.0018681
-0.00225324
-0.00444874
-0.00319777
-0.00842527
-0.00200522
-0.00430289
-0.00731079
-0.00253863
-0.00650119
-0.00305513
-0.00377039
-0.00214002
-0.00597775
-0.0117531
-0.0140504
-0.0127278
-0.00836931
-0.0243751
-0.0271395
-0.025222
-0.0193486
-0.0110053
-0.025478
-0.0276718
-0.0192402
-0.0242964
-0.02255
-0.0200351
-0.0284791
-0.0145389
-0.0170095
-0.0283577
0.0130054
0.00809581
0.00106985
-0.00660543
-0.0131765
-0.000679656
-0.00407985
0.000348984
0.00238284
-0.00201877
0.00266307
-0.00275824
-0.00082678
0.0066758
-0.0075395
-0.0107857
-0.00668286
-0.00404618
-0.0023691
-0.0013098
-0.00450033
-0.00665675
-0.00362526
-0.00353745
-0.00512267
-0.00300961
-0.00554753
-0.00397142
-0.00220744
-0.00857521
0.00120213
-0.000952383
-0.00227676
-0.00297237
-0.00321186
-0.00213788
-0.00150488
-0.00235698
-0.00241515
-0.00215589
-0.00246003
-0.00167463
-0.00244215
-0.00275279
-0.000406877
0.0149717
0.0149717
-0.00260513
0.00921239
0.00923381
0.00222573
0.00516564
0.00275763
0.00246604
0.00376894
0.000795989
0.00571851
-0.000156036
0.00923381
0.00222573
0.00516564
0.00275763
0.00246604
0.00376894
0.000795989
0.00571851
-0.000156036
0.00921239
-0.00145955
0.00170632
0.00611593
0.0106272
0.0139567
0.00224653
0.00251777
0.0025146
0.00196784
0.000463598
0.00170632
0.00611593
0.0106272
0.0139567
-0.00145955
0.00351017
0.00315217
0.00481046
0.0027434
0.00570995
0.00327097
0.00240737
0.00801924
0.00259772
0.00119727
0.00269886
0.00370716
0.00166685
0.00287357
0.00204203
0.00205721
0.00405794
0.000936783
0.00220073
0.00606969
0.00351017
0.00315217
0.00481046
0.0027434
0.00570995
0.00327097
0.00240737
0.00801924
0.00259772
0.00119727
0.00269886
0.00370716
0.00166685
0.00287357
0.00204203
0.00205721
0.00405794
0.000936783
0.00220073
0.00606969
0.000247011
0.000929054
0.00138559